
#(C) 2022 by FIZ Karlsruhe - Leibniz Institute for Information Infrastructure.  All rights reserved.
data_93714-ICSD
_database_code_ICSD 93714
_audit_creation_date 2003-04-01
_chemical_name_common 'Barium dineodymium zinc sulfide'
_chemical_formula_structural 'Ba Nd2 Zn S5'
_chemical_formula_sum 'Ba1 Nd2 S5 Zn1'
_chemical_name_structure_type Perovskite-anti#Cs3(CoCl4)Cl
_exptl_crystal_density_diffrn 5.17
_citation_title

;
Crystal structure and magnetic properties of new quaternary sulfides Ba Ln2 M
S5 (Ln= La, Ce, Pr, Nd ; M= Co, Zn) and Ba Nd2 Mn S5
;
loop_
_citation_id
_citation_journal_full
_citation_year
_citation_journal_volume
_citation_page_first
_citation_page_last
_citation_journal_id_ASTM
primary 'Journal of Solid State Chemistry' 2001 159 163 169 JSSCBI
loop_
_citation_author_citation_id
_citation_author_name
primary 'Wakeshima, M.'
primary 'Hinatsu, Y.'
_cell_length_a 7.8394(1)
_cell_length_b 7.8394(1)
_cell_length_c 13.6131(1)
_cell_angle_alpha 90
_cell_angle_beta 90
_cell_angle_gamma 90
_cell_volume 836.61
_cell_formula_units_Z 4
_space_group_name_H-M_alt 'I 4/m c m'
_space_group_IT_number 140
loop_
_space_group_symop_id
_space_group_symop_operation_xyz
1 'y, x, -z+1/2'
2 '-y, -x, -z+1/2'
3 '-y, x, -z'
4 'y, -x, -z'
5 'x, -y, -z+1/2'
6 '-x, y, -z+1/2'
7 'x, y, -z'
8 '-x, -y, -z'
9 '-y, -x, z+1/2'
10 'y, x, z+1/2'
11 'y, -x, z'
12 '-y, x, z'
13 '-x, y, z+1/2'
14 'x, -y, z+1/2'
15 '-x, -y, z'
16 'x, y, z'
17 'y+1/2, x+1/2, -z'
18 '-y+1/2, -x+1/2, -z'
19 '-y+1/2, x+1/2, -z+1/2'
20 'y+1/2, -x+1/2, -z+1/2'
21 'x+1/2, -y+1/2, -z'
22 '-x+1/2, y+1/2, -z'
23 'x+1/2, y+1/2, -z+1/2'
24 '-x+1/2, -y+1/2, -z+1/2'
25 '-y+1/2, -x+1/2, z'
26 'y+1/2, x+1/2, z'
27 'y+1/2, -x+1/2, z+1/2'
28 '-y+1/2, x+1/2, z+1/2'
29 '-x+1/2, y+1/2, z'
30 'x+1/2, -y+1/2, z'
31 '-x+1/2, -y+1/2, z+1/2'
32 'x+1/2, y+1/2, z+1/2'
loop_
_atom_type_symbol
_atom_type_oxidation_number
Ba2+ 2
Nd3+ 3
Zn2+ 2
S2- -2
loop_
_atom_site_label
_atom_site_type_symbol
_atom_site_symmetry_multiplicity
_atom_site_Wyckoff_symbol
_atom_site_fract_x
_atom_site_fract_y
_atom_site_fract_z
_atom_site_B_iso_or_equiv
_atom_site_occupancy
Ba1 Ba2+ 4 a 0 0 0.25 . 1.
Nd1 Nd3+ 8 h 0.1622(3) 0.6622(3) 0 . 1.
Zn1 Zn2+ 4 b 0 0.5 0.25 . 1.
S1 S2- 4 c 0 0 0 . 1.
S2 S2- 16 l 0.1497(9) 0.6497(9) 0.6343(6) . 1.
#End of TTdata_93714-ICSD