
#(C) 2023 by FIZ Karlsruhe - Leibniz Institute for Information Infrastructure.  All rights reserved.
data_247061-ICSD
_database_code_ICSD 247061
_audit_creation_date 2010-08-01
_chemical_name_common 'Strontium dicopper bis(borate)'
_chemical_formula_structural 'Sr Cu2 (B O3)2'
_chemical_formula_sum 'B2 Cu2 O6 Sr1'
_chemical_name_structure_type (Sr,Ba)Cu2(BO3)2
_exptl_crystal_density_diffrn 4.12
_diffrn_ambient_temperature 2.
_citation_title
'Structural distortions in the spin-gap regime of the quantum antiferromagnet'
loop_
_citation_id
_citation_journal_full
_citation_year
_citation_journal_volume
_citation_page_first
_citation_page_last
_citation_journal_id_ASTM
primary 'Journal of Solid State Chemistry' 2009 182 3275 3281 JSSCBI
loop_
_citation_author_citation_id
_citation_author_name
primary 'Vecchini, C.'
primary 'Adamopoulos, O.'
primary 'Chapon, L.C.'
primary 'Lappas, A.'
primary 'Kageyama, H.'
primary 'Ueda, Y.'
primary 'Zorko, A.'
_cell_length_a 8.98493(6)
_cell_length_b 8.98493(6)
_cell_length_c 6.64117(8)
_cell_angle_alpha 90.
_cell_angle_beta 90.
_cell_angle_gamma 90.
_cell_volume 536.13
_cell_formula_units_Z 4
_space_group_name_H-M_alt 'I -4 2 m'
_space_group_IT_number 121
loop_
_space_group_symop_id
_space_group_symop_operation_xyz
1 '-y, -x, z'
2 'y, x, z'
3 'y, -x, -z'
4 '-y, x, -z'
5 'x, -y, -z'
6 '-x, y, -z'
7 '-x, -y, z'
8 'x, y, z'
9 '-y+1/2, -x+1/2, z+1/2'
10 'y+1/2, x+1/2, z+1/2'
11 'y+1/2, -x+1/2, -z+1/2'
12 '-y+1/2, x+1/2, -z+1/2'
13 'x+1/2, -y+1/2, -z+1/2'
14 '-x+1/2, y+1/2, -z+1/2'
15 '-x+1/2, -y+1/2, z+1/2'
16 'x+1/2, y+1/2, z+1/2'
loop_
_atom_type_symbol
_atom_type_oxidation_number
Sr2+ 2
Cu2+ 2
B3+ 3
O2- -2
loop_
_atom_site_label
_atom_site_type_symbol
_atom_site_symmetry_multiplicity
_atom_site_Wyckoff_symbol
_atom_site_fract_x
_atom_site_fract_y
_atom_site_fract_z
_atom_site_B_iso_or_equiv
_atom_site_occupancy
Sr1 Sr2+ 4 c 0 0.5 0 0.07(2) 1.
Cu1 Cu2+ 8 i 0.11535(7) 0.11535(7) 0.2895(2) 0.05(2) 1.
B1 B3+ 8 i 0.29499(8) 0.29499(8) 0.2386(2) 0.02(2) 1.
O1 O2- 8 i 0.40081(9) 0.40081(9) 0.1973(2) 0.12(2) 1.
O2 O2- 16 j 0.32811(7) 0.14604(8) 0.2591(2) 0.10(2) 1.
#End of TTdata_247061-ICSD